version 2
run Tictoc16-0-20151112-03:35:26-7400
attr configname Tictoc16
attr datetime 20151112-03:35:26
attr experiment Tictoc16
attr inifile omnetpp.ini
attr iterationvars ""
attr iterationvars2 $repetition=0
attr measurement ""
attr network Tictoc16
attr processid 7400
attr repetition 0
attr replication #0
attr resultdir results
attr runnumber 0
attr seedset 0

vector 3  Tictoc16.tic[5]  hopCount:vector  ETV
attr interpolationmode  none
attr source  arrival
attr title  "hop count, vector"
vector 1  Tictoc16.tic[3]  hopCount:vector  ETV
attr interpolationmode  none
attr source  arrival
attr title  "hop count, vector"
vector 2  Tictoc16.tic[4]  hopCount:vector  ETV
attr interpolationmode  none
attr source  arrival
attr title  "hop count, vector"
vector 0  Tictoc16.tic[1]  hopCount:vector  ETV
attr interpolationmode  none
attr source  arrival
attr title  "hop count, vector"
0	140	13.9	1
0	160	15.9	1
0	190	18.9	1
0	252	25.1	1
0	282	28.1	4
0	304	30.3	13
0	330	32.9	1
0	360	35.9	9
0	384	38.3	1
0	394	39.3	1
0	422	42.1	4
0	430	42.9	2
0	448	44.7	2
0	564	56.3	6
0	718	71.7	1
0	806	80.5	18
1	74	7.3	45
1	180	17.9	1
1	278	27.7	26
1	290	28.9	8
1	418	41.7	24
1	440	43.9	4
1	538	53.7	34
1	600	59.9	35
1	758	75.7	33
1	772	77.1	9
1	786	78.5	5
2	77	7.6	1
2	79	7.8	1
2	141	14	1
2	157	15.6	4
2	179	17.8	19
2	291	29	1
2	309	30.8	5
2	323	32.2	6
2	337	33.6	1
2	351	35	1
2	601	60	1
2	621	62	12
2	717	71.6	1
2	773	77.2	1
3	18	1.7	17
3	76	7.5	2
3	78	7.7	1
3	108	10.7	29
3	236	23.5	21
3	336	33.5	6
3	350	34.9	3
3	366	36.5	6
3	428	42.7	6
3	436	43.5	6
3	446	44.5	6
3	504	50.3	56
3	558	55.7	9
3	686	68.5	3
3	716	71.5	21
3	788	78.7	2
