version 2
run Tictoc15-0-20151202-05:31:17-9616
attr configname Tictoc15
attr datetime 20151202-05:31:17
attr experiment Tictoc15
attr inifile omnetpp.ini
attr iterationvars ""
attr iterationvars2 $repetition=0
attr measurement ""
attr network Tictoc15
attr processid 9616
attr repetition 0
attr replication #0
attr resultdir results
attr runnumber 0
attr seedset 0

vector 5  Tictoc15.tic[5]  HopCount  ETV
vector 0  Tictoc15.tic[0]  HopCount  ETV
vector 3  Tictoc15.tic[3]  HopCount  ETV
vector 4  Tictoc15.tic[4]  HopCount  ETV
vector 1  Tictoc15.tic[1]  HopCount  ETV
vector 2  Tictoc15.tic[2]  HopCount  ETV
0	29	2.8	11
0	139	13.8	31
0	153	15.2	8
0	159	15.8	2
0	189	18.8	9
0	215	21.4	12
0	251	25	2
0	317	31.6	8
0	329	32.8	6
0	347	34.6	4
0	383	38.2	17
0	393	39.2	9
0	609	60.8	8
0	681	68	60
0	695	69.4	9
0	725	72.4	7
0	763	76.2	5
0	949	94.8	5
0	1105	110.4	1
0	1303	130.2	22
0	1369	136.8	2
0	1547	154.6	7
0	1555	155.4	4
0	1569	156.8	2
0	1587	158.6	7
0	1619	161.8	6
0	1797	179.6	15
0	1839	183.8	7
0	1861	186	10
0	1921	192	20
0	1947	194.6	16
0	2061	206	37
0	2129	212.8	21
0	2167	216.6	27
0	2273	227.2	22
0	2285	228.4	5
0	2309	230.8	18
0	2379	237.8	2
0	2423	242.2	16
0	2437	243.6	11
0	2525	252.4	32
0	2551	255	17
0	2743	274.2	7
0	2777	277.6	26
0	2827	282.6	15
0	2903	290.2	16
0	2913	291.2	5
0	2989	298.8	5
0	3009	300.8	2
0	3077	307.6	9
0	3175	317.4	4
0	3215	321.4	1
0	3219	321.8	2
0	3235	323.4	12
0	3297	329.6	2
0	3337	333.6	33
0	3357	335.6	4
0	3489	348.8	11
0	3575	357.4	2
0	3601	360	11
0	3685	368.4	13
0	3863	386.2	66
0	3897	389.6	1
0	4117	411.6	8
0	4133	413.2	3
0	4219	421.8	2
0	4223	422.2	2
0	4307	430.6	38
0	4337	433.6	23
0	4375	437.4	3
0	4507	450.6	44
0	4619	461.8	11
0	4765	476.4	5
0	4847	484.6	2
0	4875	487.4	5
0	4931	493	15
0	5023	502.2	7
0	5049	504.8	9
0	5127	512.6	30
0	5149	514.8	4
0	5215	521.4	36
0	5225	522.4	7
0	5393	539.2	7
0	5411	541	9
0	5449	544.8	7
0	5563	556.2	3
0	5623	562.2	21
0	5751	575	7
0	5773	577.2	21
0	5787	578.6	4
0	5837	583.6	35
0	5989	598.8	2
0	6001	600	5
0	6051	605	3
0	6071	607	5
0	6075	607.4	3
0	6111	611	10
0	6115	611.4	2
0	6137	613.6	8
0	6175	617.4	34
0	6209	620.8	9
0	6273	627.2	1
0	6451	645	7
0	6493	649.2	17
0	6591	659	51
0	6727	672.6	11
0	6817	681.6	23
0	6875	687.4	7
0	6933	693.2	22
0	7079	707.8	13
0	7091	709	9
0	7233	723.2	23
0	7285	728.4	13
0	7359	735.8	21
0	7469	746.8	41
0	7513	751.2	13
0	7559	755.8	28
0	7585	758.4	5
0	7691	769	39
0	7717	771.6	16
0	7733	773.2	4
0	7801	780	37
0	7855	785.4	5
0	7887	788.6	5
0	7977	797.6	6
0	7993	799.2	6
0	8091	809	31
0	8111	811	12
0	8171	817	3
0	8245	824.4	49
0	8475	847.4	14
0	8523	852.2	18
0	8651	865	2
0	8701	870	15
0	8745	874.4	19
0	8769	876.8	1
0	8829	882.8	14
0	8847	884.6	16
0	8967	896.6	13
0	9019	901.8	17
0	9049	904.8	5
0	9107	910.6	19
0	9121	912	8
0	9149	914.8	8
0	9155	915.4	1
0	9199	919.8	11
0	9343	934.2	1
0	9405	940.4	44
0	9419	941.8	11
0	9567	956.6	37
0	9585	958.4	4
0	9599	959.8	4
0	9705	970.4	27
0	9715	971.4	7
0	9855	985.4	35
0	9885	988.4	7
0	9905	990.4	11
0	10001	1000	12
0	10011	1001	2
0	10045	1004.4	7
0	10107	1010.6	5
0	10121	1012	2
0	10251	1025	6
0	10511	1051	95
0	10537	1053.6	4
0	10551	1055	4
0	10587	1058.6	1
0	10631	1063	13
0	10663	1066.2	13
0	10757	1075.6	37
0	10907	1090.6	77
0	10959	1095.8	5
0	10983	1098.2	5
0	11001	1100	3
0	11043	1104.2	38
0	11065	1106.4	16
0	11173	1117.2	18
0	11211	1121	12
0	11319	1131.8	21
0	11399	1139.8	38
1	140	13.9	1
1	160	15.9	1
1	190	18.9	1
1	252	25.1	1
1	282	28.1	4
1	304	30.3	13
1	330	32.9	1
1	360	35.9	9
1	384	38.3	1
1	394	39.3	1
1	422	42.1	4
1	430	42.9	2
1	448	44.7	2
1	564	56.3	6
1	718	71.7	1
1	806	80.5	18
1	886	88.5	2
1	944	94.3	5
1	950	94.9	1
1	1022	102.1	1
1	1104	110.3	14
1	1324	132.3	1
1	1332	133.1	2
1	1482	148.1	4
1	1540	153.9	1
1	1620	161.9	1
1	1704	170.3	34
1	1798	179.7	1
1	1800	179.9	1
1	1862	186.1	1
1	1894	189.3	10
1	1978	197.7	22
1	1982	198.1	2
1	2064	206.3	1
1	2168	216.7	1
1	2230	222.9	8
1	2244	224.3	2
1	2310	230.9	1
1	2424	242.3	1
1	2488	248.7	10
1	2556	255.5	1
1	2606	260.5	4
1	2636	263.5	1
1	2714	271.3	3
1	2736	273.5	1
1	2744	274.3	1
1	2812	281.1	2
1	2904	290.3	1
1	3152	315.1	3
1	3176	317.5	1
1	3214	321.3	10
1	3240	323.9	1
1	3274	327.3	27
1	3298	329.7	1
1	3338	333.7	1
1	3404	340.3	1
1	3458	345.7	1
1	3490	348.9	1
1	3564	356.3	13
1	3566	356.5	1
1	3642	364.1	1
1	3760	375.9	1
1	3864	386.3	1
1	3896	389.5	1
1	4014	401.3	2
1	4088	408.7	15
1	4106	410.5	3
1	4118	411.7	1
1	4134	413.3	1
1	4138	413.7	2
1	4172	417.1	1
1	4174	417.3	1
1	4214	421.3	2
1	4244	424.3	1
1	4390	438.9	3
1	4400	439.9	1
1	4550	454.9	12
1	4582	458.1	2
1	4724	472.3	1
1	4806	480.5	11
1	4848	484.7	1
1	4860	485.9	4
1	4870	486.9	1
1	4964	496.3	8
1	5040	503.9	6
1	5238	523.7	9
1	5248	524.7	2
1	5360	535.9	28
1	5412	541.1	1
1	5424	542.3	2
1	5442	544.1	6
1	5486	548.5	5
1	5534	553.3	39
1	5564	556.3	1
1	5580	557.9	2
1	5744	574.3	6
1	5752	575.1	1
1	5860	585.9	2
1	5924	592.3	13
1	5940	593.9	3
1	5964	596.3	6
1	5990	598.9	1
1	5994	599.3	1
1	6026	602.5	14
1	6038	603.7	6
1	6072	607.1	1
1	6236	623.5	6
1	6272	627.1	1
1	6342	634.1	2
1	6386	638.5	5
1	6476	647.5	1
1	6540	653.9	12
1	6758	675.7	1
1	6778	677.7	2
1	6782	678.1	2
1	6904	690.3	2
1	7034	703.3	4
1	7234	723.3	1
1	7272	727.1	1
1	7294	729.3	5
1	7360	735.9	1
1	7376	737.5	2
1	7428	742.7	12
1	7518	751.7	1
1	7600	759.9	2
1	7638	763.7	16
1	7830	782.9	18
1	7962	796.1	4
1	8048	804.7	8
1	8112	811.1	1
1	8164	816.3	13
1	8168	816.7	1
1	8312	831.1	8
1	8334	833.3	1
1	8482	848.1	1
1	8580	857.9	1
1	8606	860.5	1
1	8666	866.5	4
1	8676	867.5	1
1	8726	872.5	9
1	8746	874.5	1
1	8768	876.7	8
1	8792	879.1	8
1	8878	887.7	2
1	9074	907.3	6
1	9088	908.7	8
1	9108	910.7	1
1	9154	915.3	2
1	9156	915.5	1
1	9166	916.5	2
1	9176	917.5	6
1	9342	934.1	1
1	9360	935.9	8
1	9406	940.5	1
1	9408	940.7	1
1	9420	941.9	1
1	9590	958.9	2
1	9678	967.7	4
1	9742	974.1	1
1	9782	978.1	4
1	9858	985.7	1
1	10056	1005.5	1
1	10186	1018.5	6
1	10252	1025.1	1
1	10286	1028.5	22
1	10308	1030.7	1
1	10336	1033.5	8
1	10532	1053.1	6
1	10540	1053.9	1
1	10586	1058.5	4
1	10618	1061.7	2
1	10642	1064.1	1
1	10664	1066.3	1
1	10720	1071.9	1
1	10778	1077.7	1
1	10800	1079.9	15
1	10808	1080.7	1
1	10814	1081.3	2
1	10922	1092.1	10
1	10968	1096.7	2
1	10978	1097.7	1
1	11100	1109.9	8
1	11196	1119.5	1
1	11298	1129.7	3
1	11326	1132.5	5
1	11412	1141.1	9
2	145	14.4	4
2	203	20.2	13
2	249	24.8	13
2	343	34.2	6
2	549	54.8	11
2	565	56.4	1
2	683	68.2	2
2	781	78	8
2	905	90.4	17
2	937	93.6	5
2	979	97.8	15
2	1021	102	21
2	1071	107	49
2	1305	130.4	2
2	1323	132.2	7
2	1367	136.6	35
2	1391	139	18
2	1429	142.8	13
2	1509	150.8	14
2	1539	153.8	13
2	1567	156.6	12
2	1613	161.2	26
2	1635	163.4	6
2	1777	177.6	43
2	1799	179.8	1
2	1931	193	7
2	1983	198.2	1
2	2021	202	23
2	2063	206.2	2
2	2339	233.8	29
2	2367	236.6	14
2	2377	237.6	4
2	2399	239.8	11
2	2585	258.4	19
2	2635	263.4	21
2	2707	270.6	23
2	2735	273.4	17
2	2751	275	7
2	2781	278	4
2	2829	282.8	2
2	2835	283.4	4
2	2855	285.4	4
2	2929	292.8	16
2	3007	300.6	3
2	3115	311.4	38
2	3147	314.6	3
2	3239	323.8	4
2	3295	329.4	10
2	3353	335.2	15
2	3457	345.6	17
2	3533	353.2	5
2	3565	356.4	1
2	3573	357.2	6
2	3641	364	34
2	3759	375.8	3
2	3797	379.6	25
2	3867	386.6	3
2	3895	389.4	11
2	3909	390.8	12
2	3923	392.2	9
2	3937	393.6	9
2	3993	399.2	35
2	4171	417	20
2	4215	421.4	1
2	4239	423.8	16
2	4269	426.8	11
2	4399	439.8	5
2	4463	446.2	3
2	4517	451.6	7
2	4551	455	1
2	4597	459.6	11
2	4723	472.2	19
2	4731	473	6
2	4845	484.4	39
2	4869	486.8	9
2	4907	490.6	19
2	5079	507.8	6
2	5179	517.8	17
2	5315	531.4	37
2	5361	536	1
2	5395	539.4	2
2	5487	548.6	1
2	5581	558	1
2	5641	564	16
2	5687	568.6	9
2	5729	572.8	15
2	5941	594	1
2	5969	596.8	5
2	5987	598.6	7
2	5993	599.2	3
2	6113	611.2	2
2	6141	614	4
2	6271	627	3
2	6285	628.4	12
2	6319	631.8	27
2	6371	637	11
2	6429	642.8	30
2	6475	647.4	19
2	6613	661.2	6
2	6653	665.2	19
2	6679	667.8	10
2	6757	675.6	13
2	6835	683.4	18
2	6895	689.4	20
2	6949	694.8	10
2	7097	709.6	6
2	7207	720.6	27
2	7271	727	16
2	7297	729.6	3
2	7407	740.6	31
2	7489	748.8	5
2	7517	751.6	4
2	7531	753	3
2	7561	756	2
2	7729	772.8	9
2	7757	775.6	5
2	7899	789.8	12
2	8139	813.8	27
2	8167	816.6	3
2	8265	826.4	16
2	8333	833.2	15
2	8413	841.2	11
2	8481	848	6
2	8487	848.6	5
2	8527	852.6	4
2	8549	854.8	7
2	8579	857.8	5
2	8605	860.4	25
2	8611	861	5
2	8631	863	3
2	8649	864.8	10
2	8675	867.4	8
2	8915	891.4	13
2	9075	907.4	1
2	9113	911.2	5
2	9141	914	20
2	9227	922.6	21
2	9257	925.6	19
2	9293	929.2	28
2	9329	932.8	17
2	9361	936	1
2	9407	940.6	1
2	9433	943.2	13
2	9473	947.2	15
2	9507	950.6	21
2	9581	958	14
2	9615	961.4	11
2	9741	974	9
2	9775	977.4	21
2	9791	979	9
2	9939	993.8	4
2	9989	998.8	48
2	10009	1000.8	8
2	10027	1002.6	6
2	10137	1013.6	11
2	10153	1015.2	13
2	10199	1019.8	5
2	10245	1024.4	9
2	10307	1030.6	21
2	10349	1034.8	10
2	10361	1036	8
2	10367	1036.6	2
2	10539	1053.8	2
2	10579	1057.8	17
2	10673	1067.2	5
2	10709	1070.8	15
2	10719	1071.8	5
2	10777	1077.6	9
2	10807	1080.6	3
2	10941	1094	16
2	10977	1097.6	9
2	10985	1098.4	2
2	11081	1108	16
2	11107	1110.6	7
2	11125	1112.4	5
2	11195	1119.4	15
2	11225	1122.4	9
2	11237	1123.6	5
2	11279	1127.8	36
2	11327	1132.6	1
2	11361	1136	16
3	74	7.3	45
3	180	17.9	1
3	278	27.7	26
3	290	28.9	8
3	418	41.7	24
3	440	43.9	4
3	538	53.7	34
3	600	59.9	35
3	758	75.7	33
3	772	77.1	9
3	786	78.5	5
3	932	93.1	8
3	962	96.1	12
3	964	96.3	1
3	996	99.5	13
3	1090	108.9	19
3	1234	123.3	129
3	1280	127.9	45
3	1316	131.5	7
3	1330	132.9	6
3	1416	141.5	25
3	1650	164.9	15
3	1782	178.1	5
3	1832	183.1	32
3	1980	197.9	1
3	1998	199.7	15
3	2108	210.7	2
3	2140	213.9	2
3	2280	227.9	7
3	2352	235.1	6
3	2478	247.7	41
3	2554	255.3	3
3	2602	260.1	3
3	2612	261.1	6
3	2684	268.3	22
3	2718	271.7	4
3	2810	280.9	23
3	2850	284.9	15
3	2908	290.7	4
3	2984	298.3	46
3	3004	300.3	15
3	3014	301.3	5
3	3142	314.1	27
3	3200	319.9	8
3	3246	324.5	6
3	3434	343.3	12
3	3478	347.7	14
3	3664	366.3	22
3	3672	367.1	7
3	3724	372.3	35
3	3772	377.1	12
3	3884	388.3	17
3	3956	395.5	3
3	4012	401.1	19
3	4102	410.1	14
3	4128	412.7	10
3	4194	419.3	15
3	4314	431.3	7
3	4386	438.5	11
3	4394	439.3	4
3	4460	445.9	60
3	4510	450.9	1
3	4528	452.7	11
3	4538	453.7	5
3	4580	457.9	29
3	4608	460.7	11
3	4670	466.9	51
3	4698	469.7	4
3	4760	475.9	7
3	4916	491.5	9
3	4956	495.5	25
3	5016	501.5	39
3	5030	502.9	7
3	5072	507.1	23
3	5088	508.7	3
3	5138	513.7	11
3	5144	514.3	2
3	5162	516.1	4
3	5218	521.7	3
3	5246	524.5	8
3	5332	533.1	17
3	5402	540.1	7
3	5422	542.1	10
3	5436	543.5	12
3	5470	546.9	21
3	5590	558.9	9
3	5602	560.1	8
3	5664	566.3	23
3	5678	567.7	3
3	5858	585.7	21
3	5910	590.9	50
3	5980	597.9	8
3	6012	601.1	11
3	6032	603.1	1
3	6066	606.5	15
3	6200	619.9	25
3	6340	633.9	21
3	6348	634.7	6
3	6354	635.3	5
3	6444	644.3	15
3	6456	645.5	3
3	6606	660.5	11
3	6630	662.9	2
3	6668	666.7	15
3	6716	671.5	9
3	6744	674.3	17
3	6780	677.9	1
3	6794	679.3	9
3	7004	700.3	33
3	7066	706.5	32
3	7148	714.7	6
3	7180	717.9	14
3	7254	725.3	20
3	7324	732.3	2
3	7338	733.7	10
3	7416	741.5	5
3	7500	749.9	1
3	7528	752.7	10
3	7580	757.9	12
3	7652	765.1	14
3	7838	783.7	8
3	7850	784.9	2
3	7882	788.1	27
3	7970	796.9	8
3	7996	799.5	3
3	8196	819.5	25
3	8304	830.3	39
3	8378	837.7	44
3	8460	845.9	47
3	8500	849.9	13
3	8542	854.1	15
3	8626	862.5	15
3	8662	866.1	11
3	8686	868.5	6
3	8760	875.9	14
3	8876	887.5	29
3	8954	895.3	39
3	9002	900.1	8
3	9178	917.7	2
3	9188	918.7	6
3	9236	923.5	3
3	9238	923.7	1
3	9486	948.5	7
3	9530	952.9	2
3	9588	958.7	3
3	9604	960.3	5
3	9674	967.3	47
3	9708	970.7	3
3	9754	975.3	12
3	9820	981.9	2
3	9878	987.7	12
3	9894	989.3	9
3	10090	1008.9	12
3	10102	1010.1	5
3	10118	1011.7	11
3	10126	1012.5	5
3	10178	1017.7	20
3	10236	1023.5	37
3	10328	1032.7	20
3	10404	1040.3	37
3	10416	1041.5	11
3	10582	1058.1	3
3	10650	1064.9	8
3	10714	1071.3	5
3	10768	1076.7	11
3	10954	1095.3	13
3	10966	1096.5	3
3	11092	1109.1	11
3	11114	1111.3	1
3	11152	1115.1	27
3	11216	1121.5	5
3	11232	1123.1	7
3	11294	1129.3	15
3	11340	1133.9	13
4	77	7.6	1
4	79	7.8	1
4	141	14	1
4	157	15.6	4
4	179	17.8	19
4	291	29	1
4	309	30.8	5
4	323	32.2	6
4	337	33.6	1
4	351	35	1
4	601	60	1
4	621	62	12
4	717	71.6	1
4	773	77.2	1
4	939	93.8	2
4	963	96.2	1
4	983	98.2	4
4	997	99.6	1
4	1235	123.4	1
4	1281	128	1
4	1309	130.8	4
4	1373	137.2	4
4	1495	149.4	13
4	1551	155	4
4	1571	157	2
4	1629	162.8	1
4	1707	170.6	3
4	1851	185	1
4	1901	190	7
4	1923	192.2	2
4	1979	197.8	1
4	2023	202.2	2
4	2251	225	7
4	2291	229	1
4	2353	235.2	1
4	2373	237.2	6
4	2407	240.6	8
4	2425	242.4	1
4	2493	249.2	1
4	2555	255.4	1
4	2599	259.8	1
4	2711	271	4
4	2787	278.6	6
4	2831	283	2
4	2851	285	1
4	2887	288.6	1
4	3149	314.8	2
4	3171	317	1
4	3177	317.6	1
4	3217	321.6	2
4	3223	322.2	4
4	3247	324.6	1
4	3285	328.4	11
4	3361	336	4
4	3391	339	1
4	3395	339.4	1
4	3403	340.2	1
4	3551	355	1
4	3567	356.6	1
4	3605	360.4	1
4	3607	360.6	1
4	3665	366.4	1
4	3689	368.8	4
4	3913	391.2	4
4	3953	395.2	16
4	4029	402.8	15
4	4073	407.2	1
4	4103	410.2	1
4	4109	410.8	1
4	4129	412.8	1
4	4151	415	13
4	4173	417.2	1
4	4179	417.8	5
4	4217	421.6	2
4	4221	422	2
4	4243	424.2	4
4	4387	438.6	1
4	4509	450.8	2
4	4533	453.2	1
4	4725	472.4	1
4	4753	475.2	22
4	4795	479.4	1
4	4877	487.6	2
4	4977	497.6	13
4	5031	503	1
4	5073	507.2	1
4	5085	508.4	6
4	5097	509.6	1
4	5145	514.4	1
4	5153	515.2	4
4	5229	522.8	4
4	5481	548	1
4	5495	549.4	8
4	5625	562.4	2
4	5675	567.4	1
4	5783	578.2	1
4	5801	580	14
4	5911	591	1
4	5937	593.6	13
4	5957	595.6	16
4	5995	599.4	1
4	6031	603	5
4	6101	610	1
4	6129	612.8	1
4	6349	634.8	1
4	6381	638	10
4	6399	639.8	13
4	6453	645.2	2
4	6595	659.4	4
4	6607	660.6	1
4	6669	666.8	1
4	6707	670.6	1
4	6779	677.8	1
4	6785	678.4	1
4	6911	691	7
4	6939	693.8	1
4	6971	697	1
4	7005	700.4	1
4	7255	725.4	1
4	7289	728.8	4
4	7299	729.8	2
4	7411	741	4
4	7499	749.8	1
4	7701	770	1
4	7719	771.8	2
4	7971	797	1
4	7979	797.8	2
4	7987	798.6	1
4	8049	804.8	1
4	8099	809.8	8
4	8151	815	12
4	8249	824.8	4
4	8461	846	1
4	8505	850.4	1
4	8639	863.8	8
4	8667	866.6	1
4	8679	867.8	3
4	8717	871.6	1
4	8777	877.6	8
4	8815	881.4	23
4	8831	883	2
4	8883	888.2	5
4	9233	923.2	6
4	9237	923.6	1
4	9265	926.4	8
4	9341	934	1
4	9479	947.8	6
4	9511	951	4
4	9593	959.2	3
4	9595	959.4	1
4	9627	962.6	12
4	9777	977.6	2
4	9857	985.6	2
4	9935	993.4	1
4	9941	994	2
4	10021	1002	10
4	10055	1005.4	10
4	10097	1009.6	1
4	10119	1011.8	1
4	10155	1015.4	2
4	10179	1017.8	1
4	10255	1025.4	3
4	10339	1033.8	3
4	10353	1035.2	1
4	10365	1036.4	4
4	10405	1040.4	1
4	10513	1051.2	2
4	10533	1053.2	1
4	10547	1054.6	7
4	10641	1064	10
4	10681	1068	1
4	10785	1078.4	1
4	10925	1092.4	3
4	10963	1096.2	4
4	11005	1100.4	4
4	11049	1104.8	6
4	11113	1111.2	6
4	11155	1115.4	1
4	11199	1119.8	3
4	11243	1124.2	6
4	11295	1129.4	1
4	11321	1132	2
4	11345	1134.4	1
4	11403	1140.2	1
5	18	1.7	17
5	76	7.5	2
5	78	7.7	1
5	108	10.7	29
5	236	23.5	21
5	336	33.5	6
5	350	34.9	3
5	366	36.5	6
5	428	42.7	6
5	436	43.5	6
5	446	44.5	6
5	504	50.3	56
5	558	55.7	9
5	686	68.5	3
5	716	71.5	21
5	788	78.7	2
5	884	88.3	78
5	888	88.7	2
5	924	92.3	19
5	1000	99.9	3
5	1478	147.7	49
5	1526	152.5	17
5	1580	157.9	9
5	1628	162.7	8
5	1670	166.9	20
5	1734	173.3	27
5	1850	184.9	11
5	1884	188.3	22
5	1924	192.3	1
5	1956	195.5	9
5	2024	202.3	1
5	2106	210.5	42
5	2138	213.7	9
5	2222	222.1	54
5	2242	224.1	12
5	2290	228.9	5
5	2346	234.5	7
5	2388	238.7	9
5	2426	242.5	1
5	2492	249.1	4
5	2534	253.3	9
5	2566	256.5	10
5	2598	259.7	13
5	2614	261.3	2
5	2662	266.1	26
5	2886	288.5	31
5	2938	293.7	9
5	3068	306.7	54
5	3144	314.3	2
5	3170	316.9	18
5	3192	319.1	15
5	3204	320.3	4
5	3304	330.3	6
5	3390	338.9	29
5	3394	339.3	3
5	3402	340.1	7
5	3422	342.1	18
5	3440	343.9	6
5	3464	346.3	6
5	3528	352.7	38
5	3550	354.9	17
5	3590	358.9	15
5	3604	360.3	3
5	3606	360.5	1
5	3756	375.5	32
5	3914	391.3	1
5	3928	392.7	5
5	3958	395.7	2
5	4072	407.1	43
5	4108	410.7	2
5	4130	412.9	1
5	4136	413.5	2
5	4212	421.1	18
5	4258	425.7	14
5	4372	437.1	35
5	4532	453.1	4
5	4586	458.5	4
5	4694	469.3	24
5	4704	470.3	6
5	4794	479.3	29
5	4856	485.5	8
5	4888	488.7	11
5	5034	503.3	3
5	5096	509.5	8
5	5142	514.1	4
5	5158	515.7	5
5	5278	527.7	30
5	5386	538.5	25
5	5480	547.9	10
5	5560	555.9	26
5	5578	557.7	14
5	5594	559.3	4
5	5674	567.3	10
5	5714	571.3	27
5	5738	573.7	9
5	5782	578.1	9
5	5802	580.1	1
5	5958	595.7	1
5	5972	597.1	3
5	5996	599.5	1
5	6048	604.7	10
5	6100	609.9	25
5	6128	612.7	13
5	6230	622.9	21
5	6268	626.7	32
5	6292	629.1	7
5	6360	635.9	6
5	6528	652.7	35
5	6628	662.7	15
5	6634	663.3	4
5	6706	670.5	27
5	6776	677.5	18
5	6784	678.3	2
5	6868	686.7	33
5	6902	690.1	7
5	6938	693.7	5
5	6970	696.9	21
5	7030	702.9	25
5	7082	708.1	3
5	7142	714.1	45
5	7166	716.5	18
5	7210	720.9	3
5	7322	732.1	23
5	7328	732.7	4
5	7374	737.3	14
5	7484	748.3	15
5	7498	749.7	9
5	7568	756.7	7
5	7598	759.7	13
5	7622	762.1	22
5	7700	769.9	9
5	7720	771.9	1
5	7752	775.1	19
5	7764	776.3	7
5	7812	781.1	11
5	7848	784.7	10
5	7958	795.7	59
5	7986	798.5	7
5	8040	803.9	44
5	8060	805.9	11
5	8318	831.7	6
5	8402	840.1	24
5	8504	850.3	4
5	8574	857.3	25
5	8628	862.7	2
5	8680	867.9	1
5	8716	871.5	15
5	8784	878.3	7
5	8902	890.1	19
5	8994	899.3	27
5	9044	904.3	25
5	9068	906.7	19
5	9080	907.9	5
5	9152	915.1	3
5	9164	916.3	8
5	9170	916.9	4
5	9182	918.1	4
5	9206	920.5	7
5	9312	931.1	19
5	9340	933.9	11
5	9352	935.1	9
5	9458	945.7	25
5	9528	952.7	17
5	9594	959.3	1
5	9732	973.1	17
5	9778	977.7	1
5	9818	981.7	27
5	9866	986.5	8
5	9934	993.3	29
5	10038	1003.7	11
5	10078	1007.7	22
5	10096	1009.5	6
5	10140	1013.9	3
5	10158	1015.7	3
5	10180	1017.9	1
5	10194	1019.3	8
5	10264	1026.3	9
5	10352	1035.1	3
5	10526	1052.5	13
5	10562	1056.1	11
5	10616	1061.5	29
5	10668	1066.7	4
5	10680	1067.9	7
5	10694	1069.3	13
5	10784	1078.3	6
5	10804	1080.3	4
5	10812	1081.1	4
5	10830	1082.9	16
5	10912	1091.1	5
5	10998	1099.7	13
5	11120	1111.9	6
5	11154	1115.3	2
5	11180	1117.9	7
5	11344	1134.3	4
5	11402	1140.1	3
5	11430	1142.9	18
